12
stepId: 0
C_0			5.441379295706454			-23.411381253272392			0.0			
C_0			7.852670129898662			-24.83464388291621			0.0			
C_0			4.0181166660626335			-25.822672087464603			0.0			
C_0			6.429407500254841			-27.245934717108423			0.0			
C_0			0.0806863581053281			-2.7023636979413475			0.0			
C_0			-2.275995041673313			-1.1903938636068836			0.0			
C_0			1.5589068809620485			5.855870896717365			0.0			
C_0			-12.569801948456954			-17.19172732671429			0.0			
C_0			-25.030279760851013			-4.829407738308152			0.0			
C_1			8.111887695731276			-19.809576908418187			15.04976189991978			
C_1			11.698972412469018			9.541880292037028			18.428678943121042			
C_1			-25.129529116424738			-8.267794311997278			5.600288336795963			
