214
stepId: 0
C_2			53.04691819103507			-47.21100208257387			1.5			
C_2			50.50840484657536			-49.74951542703358			1.5			
C_2			50.50840484657536			-44.67248873811416			1.5			
C_2			47.96989150211565			-47.21100208257387			1.5			
C_2			47.96989150211566			-42.13397539365446			1.5			
C_2			45.43137815765595			-44.67248873811417			1.5			
C_2			45.431378157655956			-39.59546204919476			1.5			
C_2			42.89286481319625			-42.13397539365447			1.5			
C_2			42.89286481319625			-37.05694870473505			1.5			
C_2			40.35435146873654			-39.59546204919476			1.5			
C_2			40.35435146873654			-34.51843536027534			1.5			
C_2			37.81583812427683			-37.05694870473505			1.5			
C_2			37.81583812427684			-31.97992201581564			1.5			
C_2			35.27732477981713			-34.51843536027535			1.5			
C_2			35.277324779817135			-29.44140867135593			1.5			
C_2			32.73881143535743			-31.979922015815635			1.5			
C_2			32.73881143535743			-26.902895326896225			1.5			
C_2			30.20029809089772			-29.44140867135593			1.5			
C_2			30.200298090897718			-24.364381982436516			1.5			
C_2			27.661784746438013			-26.90289532689622			1.5			
C_2			27.661784746438016			-21.825868637976814			1.5			
C_2			25.12327140197831			-24.36438198243652			1.5			
C_2			25.12327140197831			-19.28735529351711			1.5			
C_2			22.584758057518606			-21.825868637976814			1.5			
C_2			22.584758057518606			-16.748841949057404			1.5			
C_2			20.0462447130589			-19.28735529351711			1.5			
C_2			20.046244713058897			-14.210328604597695			1.5			
C_2			17.50773136859919			-16.7488419490574			1.5			
C_2			17.507731368599195			-11.67181526013799			1.5			
C_2			14.969218024139488			-14.210328604597695			1.5			
C_2			14.969218024139492			-9.133301915678288			1.5			
C_2			12.430704679679787			-11.671815260137993			1.5			
C_2			12.430704679679783			-6.594788571218579			1.5			
C_2			9.892191335220078			-9.133301915678285			1.5			
C_2			9.892191335220076			-4.056275226758872			1.5			
C_2			7.353677990760369			-6.594788571218578			1.5			
C_2			7.353677990760367			-1.5177618822991632			1.5			
C_2			4.815164646300662			-4.056275226758869			1.5			
C_2			4.81516464630067			1.0207514621605347			1.5			
C_2			2.276651301840964			-1.5177618822991705			1.5			
C_2			2.276651301840962			3.559264806620243			1.5			
C_2			-0.26186204261874346			1.0207514621605376			1.5			
C_2			-0.2618620426187457			6.097778151079951			1.5			
C_2			-2.8003753870784514			3.559264806620246			1.5			
C_2			-2.800375387078444			8.63629149553965			1.5			
C_2			-5.33888873153815			6.097778151079944			1.5			
C_2			-5.338888731538152			11.174804839999357			1.5			
C_2			-7.877402075997857			8.636291495539652			1.5			
C_2			-7.877402075997859			13.713318184459066			1.5			
C_2			-10.415915420457564			11.17480483999936			1.5			
C_2			-10.415915420457567			16.251831528918775			1.5			
C_2			-12.954428764917273			13.71331818445907			1.5			
C_2			-12.954428764917274			18.79034487337848			1.5			
C_2			-15.49294210937698			16.251831528918775			1.5			
C_2			-15.492942109376973			21.32885821783818			1.5			
C_2			-18.031455453836678			18.790344873378476			1.5			
C_2			-18.03145545383668			23.86737156229789			1.5			
C_2			-20.569968798296387			21.328858217838185			1.5			
C_2			-20.569968798296387			26.405884906757596			1.5			
C_2			-23.108482142756092			23.86737156229789			1.5			
C_2			-23.108482142756085			28.944398251217294			1.5			
C_2			-25.64699548721579			26.40588490675759			1.5			
C_2			-25.646995487215793			31.482911595677002			1.5			
C_2			-28.1855088316755			28.944398251217297			1.5			
C_2			-28.185508831675502			34.02142494013671			1.5			
C_2			-30.724022176135207			31.482911595677006			1.5			
C_2			-30.724022176135207			36.55993828459642			1.5			
C_2			-33.262535520594916			34.02142494013671			1.5			
C_2			-33.262535520594916			39.09845162905613			1.5			
C_2			-35.801048865054625			36.55993828459642			1.5			
C_2			-35.80104886505462			41.63696497351582			1.5			
C_2			-38.33956220951433			39.098451629056115			1.5			
C_2			-38.339562209514334			44.175478317975546			1.5			
C_2			-40.87807555397404			41.63696497351584			1.5			
C_2			-40.87807555397402			46.713991662435234			1.5			
C_2			-43.41658889843373			44.175478317975525			1.5			
C_2			-43.41658889843373			49.25250500689494			1.5			
C_2			-45.95510224289344			46.713991662435234			1.5			
C_2			-45.95510224289344			51.79101835135465			1.5			
C_2			-48.49361558735315			49.25250500689494			1.5			
C_2			-48.49361558735314			54.32953169581436			1.5			
C_2			-51.03212893181285			51.79101835135465			1.5			
C_2			-51.03212893181285			56.86804504027406			1.5			
C_2			-53.57064227627256			54.32953169581435			1.5			
C_2			-53.57064227627256			59.40655838473377			1.5			
C_2			-56.10915562073227			56.86804504027406			1.5			
C_2			-56.10915562073227			61.94507172919348			1.5			
C_2			-58.647668965191976			59.40655838473377			1.5			
C_2			-58.647668965191954			64.48358507365316			1.5			
C_2			-61.18618230965166			61.94507172919346			1.5			
C_2			-61.18618230965166			67.02209841811288			1.5			
C_2			-63.72469565411137			64.48358507365317			1.5			
C_2			-63.724695654111365			69.56061176257258			1.5			
C_2			-66.26320899857107			67.02209841811288			1.5			
C_2			-66.26320899857109			72.0991251070323			1.5			
C_2			-68.80172234303079			69.56061176257259			1.5			
C_2			-68.80172234303078			74.637638451492			1.5			
C_2			-71.34023568749049			72.0991251070323			1.5			
C_2			-71.34023568749049			77.17615179595171			1.5			
C_2			-73.8787490319502			74.63763845149201			1.5			
C_2			-14.76419055091575			-84.47855353271032			1.5			
C_2			-16.66807555926053			-86.38243854105511			1.5			
C_2			-16.66807555926053			-82.57466852436555			1.5			
C_2			-18.57196056760531			-84.47855353271032			1.5			
C_2			-18.571960567605302			-80.67078351602078			1.5			
C_2			-20.475845575950082			-82.57466852436555			1.5			
C_2			-20.475845575950085			-78.76689850767599			1.5			
C_2			-22.379730584294865			-80.67078351602076			1.5			
C_2			-22.37973058429486			-76.86301349933122			1.5			
C_2			-24.28361559263964			-78.76689850767599			1.5			
C_2			-24.28361559263964			-74.95912849098643			1.5			
C_2			-26.18750060098442			-76.8630134993312			1.5			
C_2			-26.18750060098442			-73.05524348264166			1.5			
C_2			-28.0913856093292			-74.95912849098643			1.5			
C_2			-28.0913856093292			-71.15135847429687			1.5			
C_2			-29.99527061767398			-73.05524348264164			1.5			
C_2			-29.995270617673977			-69.2474734659521			1.5			
C_2			-31.899155626018757			-71.15135847429687			1.5			
C_2			-31.899155626018757			-67.34358845760732			1.5			
C_2			-33.80304063436354			-69.24747346595208			1.5			
C_2			-33.80304063436353			-65.43970344926254			1.5			
C_2			-35.70692564270831			-67.34358845760731			1.5			
C_2			-35.70692564270831			-63.53581844091776			1.5			
C_2			-37.61081065105309			-65.43970344926254			1.5			
C_2			-37.6108106510531			-61.63193343257298			1.5			
C_2			-39.51469565939787			-63.53581844091775			1.5			
C_2			-39.51469565939787			-59.7280484242282			1.5			
C_2			-41.41858066774265			-61.63193343257297			1.5			
C_2			-41.41858066774265			-57.82416341588342			1.5			
C_2			-43.32246567608743			-59.72804842422819			1.5			
C_2			-43.32246567608743			-55.920278407538646			1.5			
C_2			-45.226350684432205			-57.82416341588342			1.5			
C_2			-45.22635068443221			-54.01639339919386			1.5			
C_2			-47.13023569277699			-55.92027840753863			1.5			
C_2			-47.13023569277699			-52.11250839084908			1.5			
C_2			-49.03412070112177			-54.01639339919385			1.5			
C_2			-49.034120701121765			-50.20862338250431			1.5			
C_2			-50.938005709466545			-52.11250839084908			1.5			
C_2			-50.938005709466545			-48.30473837415953			1.5			
C_2			-52.841890717811324			-50.2086233825043			1.5			
C_2			-52.841890717811324			-46.40085336581475			1.5			
C_2			-54.745775726156104			-48.30473837415952			1.5			
C_2			-54.745775726156104			-44.49696835746997			1.5			
C_2			-56.649660734500884			-46.40085336581474			1.5			
C_2			-56.649660734500884			-42.59308334912519			1.5			
C_2			-58.553545742845664			-44.49696835746996			1.5			
C_2			-58.55354574284566			-40.68919834078041			1.5			
C_2			-60.457430751190444			-42.59308334912518			1.5			
C_2			-60.457430751190444			-38.78531333243562			1.5			
C_2			-62.36131575953523			-40.68919834078039			1.5			
C_2			-62.36131575953522			-36.88142832409085			1.5			
C_2			-64.26520076788			-38.78531333243562			1.5			
C_2			-64.26520076788			-34.97754331574607			1.5			
C_2			-66.16908577622478			-36.88142832409084			1.5			
C_2			-66.16908577622478			-33.073658307401296			1.5			
C_2			-68.07297078456955			-34.97754331574607			1.5			
C_2			-68.07297078456956			-31.16977329905651			1.5			
C_2			-69.97685579291434			-33.07365830740128			1.5			
C_2			-69.97685579291434			-29.265888290711732			1.5			
C_2			-71.88074080125912			-31.169773299056505			1.5			
C_2			-71.88074080125911			-27.362003282366956			1.5			
C_2			-73.7846258096039			-29.26588829071173			1.5			
C_2			-73.7846258096039			-25.45811827402217			1.5			
C_2			-75.68851081794868			-27.362003282366942			1.5			
C_2			-75.68851081794867			-23.554233265677393			1.5			
C_2			-77.59239582629345			-25.458118274022166			1.5			
C_2			-77.59239582629345			-21.650348257332617			1.5			
C_2			-79.49628083463823			-23.55423326567739			1.5			
C_2			-79.49628083463824			-19.746463248987833			1.5			
C_2			-81.40016584298301			-21.650348257332606			1.5			
C_2			-81.40016584298301			-17.842578240643057			1.5			
C_2			-83.30405085132779			-19.74646324898783			1.5			
C_2			-83.30405085132779			-15.938693232298277			1.5			
C_2			-85.20793585967257			-17.84257824064305			1.5			
C_2			-85.20793585967257			-14.03480822395349			1.5			
C_2			-87.11182086801736			-15.938693232298263			1.5			
C_2			-87.11182086801735			-12.130923215608718			1.5			
C_2			-89.01570587636212			-14.03480822395349			1.5			
C_2			-89.01570587636212			-10.227038207263938			1.5			
C_2			-90.9195908847069			-12.13092321560871			1.5			
C_2			-90.9195908847069			-8.323153198919165			1.5			
C_2			-92.82347589305168			-10.227038207263938			1.5			
C_2			-92.8234758930517			-6.419268190574378			1.5			
C_2			-94.72736090139647			-8.323153198919151			1.5			
C_2			-94.72736090139645			-4.5153831822296056			1.5			
C_2			-96.63124590974124			-6.419268190574378			1.5			
C_2			-96.63124590974124			-2.6114981738848257			1.5			
C_2			-98.53513091808603			-4.5153831822295984			1.5			
C_2			-98.53513091808603			-0.7076131655400388			1.5			
C_2			-100.43901592643081			-2.6114981738848115			1.5			
C_2			-100.4390159264308			1.1962718428047339			1.5			
C_2			-102.34290093477557			-0.7076131655400388			1.5			
C_2			-102.34290093477557			3.1001568511495137			1.5			
C_2			-104.24678594312036			1.196271842804741			1.5			
C_2			-104.24678594312036			5.004041859494301			1.5			
C_2			-106.15067095146514			3.100156851149528			1.5			
C_2			-106.15067095146514			6.9079268678390875			1.5			
C_2			-108.05455595980993			5.004041859494315			1.5			
C_2			-108.05455595980993			8.81181187618386			1.5			
C_2			-109.9584409681547			6.9079268678390875			1.5			
C_2			-59.43347529320609			23.35457190287661			1.5			
C_2			-61.97198863766579			20.816058558416906			1.5			
C_2			-61.971988637665795			25.89308524733632			1.5			
C_2			-64.5105019821255			23.354571902876614			1.5			
C_2			-64.5105019821255			28.43159859179603			1.5			
C_2			-67.0490153265852			25.893085247336323			1.5			
C_2			-67.04901532658519			30.970111936255723			1.5			
C_2			-69.58752867104491			28.431598591796018			1.5			
C_2			-69.58752867104491			33.508625280715435			1.5			
C_2			-72.12604201550461			30.970111936255726			1.5			
C_2			-72.12604201550462			36.04713862517514			1.5			
C_2			-74.66455535996433			33.508625280715435			1.5			
C_2			22.714590178128525			33.61635439567269			1.5			
C_2			20.176076833668823			31.07784105121298			1.5			
